# vtk DataFile Version 4.2
VMM Boundary2D (POLYLINES)
ASCII
DATASET POLYDATA
POINTS 4 double
-5.000000 -2.500000 0.0
5.000000 -2.500000 0.0
5.000000 2.500000 0.0
-5.000000 2.500000 0.0
LINES 1 6
5 0 1 2 3 0
CELL_DATA 1
SCALARS loop_kind int 1
LOOKUP_TABLE default
0
SCALARS region_id int 1
LOOKUP_TABLE default
1
